# LAMMPS data file written by OVITO Basic 3.10.4

37920 atoms
10 atom types

31.216350674 168.7836493243 xlo xhi
21.4485996219 128.551400376 ylo yhi
23.4534311901 126.546568808 zlo zhi

Atoms  # full

5525 305 8 -0.5 63.4573 24.6608 25.3521
6075 351 6 -0.11 62.4039 27.4907 23.6838
5521 305 5 -0.14 64.5424 24.8246 27.3211
5529 305 9 0.06 63.8111 26.7868 27.4896
6079 351 9 0.06 61.3286 27.17 23.5952
5522 305 6 -0.11 64.0001 25.9425 28.1063
5531 305 9 0.06 64.6225 26.3461 28.9795
5530 305 9 0.06 63.0309 25.576 28.4985
5526 305 9 0.06 65.2847 22.779 27.3407
5364 291 10 0.0 64.564 21.6842 24.2088
6082 351 9 0.06 61.8526 27.7768 26.3321
5523 305 6 -0.11 64.9666 23.5617 27.9767
5524 305 7 0.5 64.4398 24.885 26.007
5528 305 9 0.06 64.0829 23.1348 28.486
5532 305 10 0.0 65.3529 24.7521 25.4793
6078 351 9 0.06 62.7144 26.6359 24.2746
6073 351 5 -0.14 62.6333 28.66 24.5131
6074 351 6 -0.11 62.2437 28.6408 25.8663
25675 1984 9 0.06 60.2689 34.1305 28.2099
25676 1984 9 0.06 59.5269 32.6201 28.0889
25677 1984 9 0.06 60.9912 31.6342 25.6528
6081 351 9 0.06 61.4749 29.42 25.904
25679 1984 9 0.06 60.0392 32.5161 24.3587
25670 1984 6 -0.11 60.1398 32.2144 25.4237
25674 1984 9 0.06 61.234 32.5925 28.0238
6083 351 9 0.06 63.1151 28.8961 26.4288
25678 1984 9 0.06 59.3731 31.5167 25.7674
25669 1984 5 -0.14 60.2657 33.3514 26.2232
25671 1984 6 -0.11 60.3868 33.1639 27.6849
25672 1984 7 0.5 60.4842 34.5437 25.6563
6076 351 7 0.5 62.899 29.7718 23.8701
24285 1868 9 0.06 63.4498 30.8475 27.547
24286 1868 9 0.06 65.1312 30.4089 27.8351
24278 1868 6 -0.11 64.3307 31.1033 28.1832
24287 1868 9 0.06 64.0583 31.0144 29.1987
24277 1868 5 -0.14 64.827 32.3684 27.8342
24288 1868 10 0.0 65.0194 33.3903 26.1549
24280 1868 7 0.5 65.4492 32.5947 26.6826
24283 1868 9 0.06 63.716 33.4755 29.2213
25680 1984 10 0.0 59.6275 35.0446 25.2401
25673 1984 8 -0.5 61.5948 35.0858 25.5415
24279 1868 6 -0.11 64.7288 33.4398 28.8071
33438 2631 9 0.06 64.8903 35.746 25.9698
24284 1868 9 0.06 65.4238 33.1239 29.6049
6084 351 10 0.0 63.7276 30.3979 24.1327
24282 1868 9 0.06 64.9734 34.416 28.3017
4473 217 9 0.06 62.9177 32.7411 23.6273
33419 2629 9 0.06 60.0862 31.952 30.3692
33076 2601 7 0.5 58.1 37.6003 28.099
33077 2601 8 -0.5 58.807 37.0172 27.2584
33074 2601 6 -0.11 57.4732 39.8952 28.2271
33073 2601 5 -0.14 57.2687 38.6017 27.7262
33075 2601 6 -0.11 55.891 38.3005 27.2058
33078 2601 9 0.06 55.1499 38.2709 27.9819
33080 2601 9 0.06 55.8883 37.3681 26.5969
33079 2601 9 0.06 55.4555 39.0123 26.4503
33083 2601 9 0.06 57.5797 39.8385 29.3119
33081 2601 9 0.06 58.4299 40.2607 27.8377
33082 2601 9 0.06 56.6516 40.5816 28.0011
28541 2223 8 -0.5 57.0636 39.3219 23.7323
28540 2223 7 0.5 57.9933 38.7312 24.2439
33084 2601 10 0.0 58.1853 37.3828 29.168
28548 2223 10 0.0 57.8395 38.0939 25.1016
33440 2631 9 0.06 65.3333 36.8215 27.3705
2319 38 6 -0.11 61.7422 36.7954 29.2858
33435 2631 6 -0.11 65.3723 36.7109 26.2811
2328 38 10 0.0 61.11 37.9156 26.9768
33436 2631 7 0.5 63.6762 37.6139 24.7405
33444 2631 10 0.0 62.6892 37.1654 25.0312
33433 2631 5 -0.14 64.607 37.8652 25.7452
2321 38 8 -0.5 61.4146 39.8916 27.3306
2320 38 7 0.5 61.4699 38.6907 27.6678
2317 38 5 -0.14 61.8235 38.2253 28.8786
2318 38 6 -0.11 62.2643 39.1726 29.8634
31298 2453 6 -0.11 63.2288 42.715 26.1316
31306 2453 9 0.06 62.3662 42.0759 26.2776
31305 2453 9 0.06 63.7857 42.4068 25.2611
29445 2298 9 0.06 65.5894 38.9359 29.4732
28537 2223 5 -0.14 59.1956 38.7458 23.6104
2326 38 9 0.06 61.5872 40.0301 29.8773
31300 2453 7 0.5 64.0574 42.1503 28.3104
28539 2223 6 -0.11 60.2533 39.624 23.9344
2325 38 9 0.06 63.3506 39.421 29.6137
31301 2453 8 -0.5 64.9938 41.4218 28.6192
2324 38 9 0.06 60.9545 36.7385 30.0151
33437 2631 8 -0.5 64.0565 37.4898 23.5928
28544 2223 9 0.06 60.698 39.2744 24.8963
31308 2453 10 0.0 63.28 42.3377 28.9851
2322 38 9 0.06 61.458 36.0614 28.4257
2323 38 9 0.06 62.7027 36.5412 29.7042
28546 2223 9 0.06 60.3518 36.9682 23.4155
33443 2631 9 0.06 64.5157 39.3481 27.2798
33434 2631 6 -0.11 64.8123 39.2456 26.2216
29438 2298 6 -0.11 65.3965 38.0519 30.1187
29446 2298 9 0.06 64.6559 37.3542 29.8107
33442 2631 9 0.06 64.2968 40.0209 25.6823
31297 2453 5 -0.14 64.1214 42.9739 27.1901
28543 2223 9 0.06 59.9213 40.6647 23.9344
34059 2683 6 -0.11 36.8961 46.0885 30.6772
34057 2683 5 -0.14 36.2446 47.3905 30.5504
34060 2683 7 0.5 35.3159 47.5741 29.594
34068 2683 10 0.0 35.4515 48.3868 28.9416
34061 2683 8 -0.5 34.4381 46.741 29.3655
18767 1408 9 0.06 33.7464 49.7826 27.6261
34063 2683 9 0.06 36.1868 45.3535 30.9988
34064 2683 9 0.06 37.4341 45.7749 29.7515
13485 968 9 0.06 31.411 46.8031 29.8121
12936 922 10 0.0 43.4241 48.452 30.1171
13178 943 6 -0.11 41.7678 48.5351 23.8064
13177 943 5 -0.14 42.4091 47.25 23.6993
13183 943 9 0.06 41.7703 45.3163 24.5161
13179 943 6 -0.11 42.2627 46.2846 24.8227
13184 943 9 0.06 43.2496 45.9409 25.2645
13182 943 9 0.06 41.5823 46.6438 25.5638
12928 922 7 0.5 42.3578 48.6226 30.0883
12929 922 8 -0.5 41.8197 48.9914 29.0599
4974 259 9 0.06 43.5925 49.9077 26.7529
13187 943 9 0.06 41.5237 48.7801 24.8631
4976 259 9 0.06 45.1557 49.763 27.6723
22579 1726 9 0.06 57.8248 44.3348 27.7823
22578 1726 9 0.06 57.6053 45.4968 29.2417
22575 1726 6 -0.11 58.207 44.7584 28.7546
22580 1726 9 0.06 58.3777 44.0765 29.5788
31307 2453 9 0.06 62.8105 43.6625 25.8885
22583 1726 9 0.06 61.2964 44.3722 27.9856
22582 1726 9 0.06 60.4619 45.2116 26.6026
22581 1726 9 0.06 59.8864 43.7224 27.2633
22574 1726 6 -0.11 60.3318 44.663 27.5496
22577 1726 8 -0.5 59.4098 46.9975 30.1196
22576 1726 7 0.5 59.9838 46.4824 29.1854
22573 1726 5 -0.14 59.4984 45.4132 28.4885
31299 2453 6 -0.11 64.7389 44.3026 27.2543
31304 2453 9 0.06 63.9935 45.0853 27.3014
31303 2453 9 0.06 65.4313 44.5942 26.4552
23873 1834 8 -0.5 63.6823 45.6635 30.1513
23872 1834 7 0.5 64.3162 46.6137 30.6606
13470 967 9 0.06 65.0618 47.7555 24.6982
13465 967 5 -0.14 65.403 49.6108 25.4266
22584 1726 10 0.0 60.6334 47.1359 28.6338
27168 2108 10 0.0 61.6547 43.9319 30.6065
13473 967 9 0.06 63.5926 49.6555 24.4253
31302 2453 9 0.06 65.2313 44.4005 28.2166
18765 1408 9 0.06 34.0297 50.7377 29.0247
8921 588 8 -0.5 37.6887 51.3782 28.2214
18758 1408 6 -0.11 33.4549 50.7166 28.0844
23497 1803 5 -0.14 36.5889 56.2735 27.1661
18761 1408 8 -0.5 32.6736 53.7649 26.813
23503 1803 9 0.06 36.9368 55.6417 25.2478
18760 1408 7 0.5 33.1878 53.0973 27.6625
30634 2397 9 0.06 34.9952 53.5046 29.8117
18757 1408 5 -0.14 33.7936 51.9232 27.327
18759 1408 6 -0.11 34.9021 51.9076 26.4126
23499 1803 6 -0.11 36.1095 55.9805 25.7876
30636 2397 10 0.0 37.4997 53.678 30.0337
18762 1408 9 0.06 35.2879 50.9505 26.0018
30756 2407 10 0.0 31.5042 56.7257 25.4589
18764 1408 9 0.06 35.7481 52.4925 26.9135
18763 1408 9 0.06 34.6622 52.4782 25.4499
23504 1803 9 0.06 35.4403 55.2472 25.7707
23506 1803 9 0.06 35.3242 56.3503 28.8526
18768 1408 10 0.0 33.1193 53.3347 28.7567
23498 1803 6 -0.11 35.9946 55.6738 28.2663
23507 1803 9 0.06 35.2744 54.9216 28.0325
30748 2407 7 0.5 32.1908 56.3482 24.6628
18766 1408 9 0.06 32.3636 50.663 28.2096
23502 1803 9 0.06 35.8202 56.9143 25.2366
30745 2407 5 -0.14 31.5583 55.9513 23.5375
30749 2407 8 -0.5 33.2774 56.9101 24.5412
30753 2407 9 0.06 32.023 53.8795 23.792
23505 1803 9 0.06 36.7883 55.2893 28.9626
4975 259 9 0.06 44.9403 50.928 26.2742
8926 588 9 0.06 38.5265 53.9747 27.621
8923 588 9 0.06 40.1096 50.6908 25.6379
8924 588 9 0.06 38.796 51.4755 24.8958
8920 588 7 0.5 38.7748 51.3702 27.6982
8927 588 9 0.06 39.9289 54.1546 26.4697
8928 588 10 0.0 39.4629 50.66 28.1244
8918 588 6 -0.11 38.9559 53.6444 26.694
8925 588 9 0.06 38.1686 53.725 25.9385
8917 588 5 -0.14 39.1419 52.1861 26.7329
8919 588 6 -0.11 39.6789 51.6532 25.531
4969 259 5 -0.14 44.1056 51.4662 28.1862
4971 259 6 -0.11 44.4971 50.4859 27.141
4972 259 7 0.5 44.6714 51.5262 29.3568
4970 259 6 -0.11 42.939 52.2916 27.8662
19454 1466 6 -0.11 41.3074 55.9805 24.7892
19461 1466 9 0.06 40.8913 56.1783 25.7549
22672 1734 7 0.5 42.7508 56.7027 30.7083
22671 1734 6 -0.11 40.9582 55.1036 30.7449
22669 1734 5 -0.14 42.0995 55.7032 30.0619
7470 467 9 0.06 43.9003 54.4983 25.6999
4977 259 9 0.06 43.157 53.3252 27.6097
4978 259 9 0.06 42.3419 51.9184 27.0145
22670 1734 6 -0.11 41.875 55.6675 28.5892
4979 259 9 0.06 42.3071 52.3215 28.6942
8922 588 9 0.06 40.4621 52.3084 25.1079
22678 1734 9 0.06 42.8495 55.7839 28.1337
19462 1466 9 0.06 41.9746 55.1138 24.7666
22674 1734 9 0.06 40.0351 55.0724 30.1362
22679 1734 9 0.06 41.4176 54.7294 28.2874
4980 259 10 0.0 43.8957 51.8036 30.1165
7471 467 9 0.06 43.6033 53.2044 24.7266
19463 1466 9 0.06 41.9597 56.8313 24.63
19453 1466 5 -0.14 40.208 56.0532 23.8356
22677 1734 9 0.06 41.1911 56.5115 28.3866
7467 467 6 -0.11 44.4341 53.7256 25.1917
19456 1466 7 0.5 39.4349 57.1377 23.8146
28410 2212 9 0.06 49.9449 50.3361 27.9908
17243 1281 9 0.06 50.0763 50.8897 23.4629
17241 1281 9 0.06 49.2299 52.5095 23.578
17234 1281 6 -0.11 49.1385 51.4251 23.3828
17242 1281 9 0.06 48.4459 50.9026 23.9965
28411 2212 9 0.06 50.2807 50.2951 29.8147
28408 2212 7 0.5 51.3848 52.4589 28.1513
28407 2212 6 -0.11 49.9166 50.8426 28.9397
4973 259 8 -0.5 45.9038 51.5598 29.5015
28412 2212 9 0.06 48.8613 50.9131 29.1198
28409 2212 8 -0.5 51.2655 52.429 26.9142
7472 467 9 0.06 44.9317 53.1329 25.982
28414 2212 9 0.06 50.451 53.4943 30.5489
28406 2212 6 -0.11 49.6658 53.1458 29.8262
28413 2212 9 0.06 48.8974 52.6017 30.4247
28405 2212 5 -0.14 50.343 52.1866 28.9094
28415 2212 9 0.06 49.1233 53.9298 29.3228
13199 944 9 0.06 49.5779 54.4577 27.3137
7465 467 5 -0.14 45.2843 54.4891 24.2862
13189 944 5 -0.14 50.2928 56.4604 27.4503
13192 944 7 0.5 51.4839 56.1745 27.8842
13193 944 8 -0.5 51.7426 55.9342 29.098
13190 944 6 -0.11 49.4123 55.4471 26.945
7466 467 6 -0.11 46.5911 53.8968 24.0297
13198 944 9 0.06 49.6557 55.2822 25.9076
13197 944 9 0.06 48.3786 55.6714 27.1163
7474 467 9 0.06 47.0131 53.4595 24.9764
29419 2296 9 0.06 47.2482 56.717 30.6951
7468 467 7 0.5 45.0176 55.6305 23.7575
7473 467 9 0.06 47.3406 54.4985 23.5521
28416 2212 10 0.0 52.3827 52.4919 28.5973
5092 269 7 0.5 55.7647 57.0395 27.1468
13200 944 10 0.0 52.2587 55.8 27.1436
25571 1975 9 0.06 53.6494 55.3968 23.5312
5097 269 9 0.06 54.3792 54.5861 28.9434
5090 269 6 -0.11 55.2884 55.1684 28.7571
5098 269 9 0.06 56.1986 54.6041 29.0014
5099 269 9 0.06 55.1742 55.9803 29.4611
5089 269 5 -0.14 55.3762 55.727 27.4104
5096 269 9 0.06 56.1069 54.5292 25.9735
5094 269 9 0.06 54.4729 53.8907 26.6891
5091 269 6 -0.11 55.1073 54.7648 26.3754
5095 269 9 0.06 54.6336 55.2954 25.5725
37439 2964 9 0.06 54.3368 50.7234 30.1157
37430 2964 6 -0.11 54.3237 51.8245 30.5077
37438 2964 9 0.06 54.9277 52.4364 29.8351
37437 2964 9 0.06 53.3651 52.3183 30.5605
13475 967 9 0.06 65.0084 50.0135 23.5324
13476 967 10 0.0 64.635 50.7434 26.963
13468 967 7 0.5 65.4298 50.005 26.724
13466 967 6 -0.11 64.5058 50.226 24.4859
13474 967 9 0.06 64.4197 51.3008 24.6435
17693 1319 8 -0.5 58.019 35.8565 34.808
17698 1319 9 0.06 58.545 35.4928 31.1272
33413 2629 8 -0.5 61.8678 33.8501 31.2902
33415 2629 9 0.06 61.1097 30.2719 33.4365
33411 2629 6 -0.11 61.6091 31.1126 33.0756
33416 2629 9 0.06 62.4649 30.8521 32.4513
33414 2629 9 0.06 62.0276 31.7005 33.9165
33417 2629 9 0.06 60.1921 30.408 31.1757
33418 2629 9 0.06 58.9131 31.4848 31.5388
33412 2629 7 0.5 61.1566 33.4116 32.2153
33420 2629 10 0.0 60.6316 34.0974 32.9112
33409 2629 5 -0.14 60.7775 32.0684 32.3475
33410 2629 6 -0.11 59.9679 31.4528 31.2987
5401 295 5 -0.14 63.1396 31.2273 36.8768
5404 295 7 0.5 62.818 32.5587 36.8169
5405 295 8 -0.5 62.9684 33.1213 35.6977
5408 295 9 0.06 61.4451 29.8565 37.1705
18107 1353 9 0.06 63.1024 35.5365 33.7359
5412 295 10 0.0 62.2999 33.0265 37.6602
5403 295 6 -0.11 62.2898 30.3581 37.7087
5411 295 9 0.06 63.9558 30.9745 34.9515
5410 295 9 0.06 63.6436 29.4876 35.7604
5402 295 6 -0.11 63.9414 30.5182 35.8863
5409 295 9 0.06 64.9271 30.5777 36.2894
10449 715 9 0.06 34.7469 42.2389 37.3882
10448 715 9 0.06 35.5668 42.0832 34.149
10446 715 9 0.06 34.4962 41.4812 35.3476
10443 715 6 -0.11 34.7537 42.4297 34.856
11910 837 9 0.06 37.9225 41.5823 35.3191
11911 837 9 0.06 39.7875 41.196 35.4456
32823 2580 6 -0.11 42.7487 40.1668 37.6752
32828 2580 9 0.06 42.1903 41.0178 37.361
11907 837 6 -0.11 38.9802 42.0184 35.5302
11912 837 9 0.06 39.0097 42.4306 36.5096
32827 2580 9 0.06 42.7401 39.4525 36.8457
11915 837 9 0.06 39.3524 42.4729 32.8372
17690 1319 6 -0.11 58.5502 36.3326 31.8881
17692 1319 7 0.5 57.1561 36.215 34.029
17700 1319 10 0.0 56.1445 36.4972 34.4863
4253 199 8 -0.5 56.7923 40.1631 31.863
17689 1319 5 -0.14 57.3548 36.4207 32.7485
17695 1319 9 0.06 56.4009 36.9256 30.8627
17691 1319 6 -0.11 56.1431 36.7018 31.9159
4258 199 9 0.06 57.9074 41.1534 34.6431
17696 1319 9 0.06 55.4002 35.8463 31.9977
17694 1319 9 0.06 55.6531 37.6288 32.1918
4250 199 6 -0.11 58.3879 40.2851 34.3543
4252 199 7 0.5 57.8715 40.7007 32.0673
4249 199 5 -0.14 58.6632 40.2043 32.9723
4260 199 10 0.0 58.1902 41.6309 31.645
4259 199 9 0.06 57.8063 39.4033 34.6288
2327 38 9 0.06 62.2977 38.5966 30.7475
17699 1319 9 0.06 58.8181 37.2944 31.3767
18106 1353 9 0.06 63.9648 36.8629 32.8785
4257 199 9 0.06 59.3968 40.0762 34.825
18098 1353 6 -0.11 63.1276 36.6228 33.5445
4255 199 9 0.06 60.1637 38.7027 32.9906
18105 1353 9 0.06 62.2607 36.7147 32.819
27161 2108 8 -0.5 60.5639 42.5963 31.5152
18102 1353 9 0.06 61.6349 38.5804 35.3672
17697 1319 9 0.06 59.3704 36.1834 32.5406
4254 199 9 0.06 60.7349 40.3528 33.1103
4256 199 9 0.06 60.2212 39.6999 31.5614
4251 199 6 -0.11 59.9882 39.728 32.6726
18108 1353 10 0.0 65.1863 38.0444 34.9298
18101 1353 8 -0.5 64.126 39.486 34.3498
18100 1353 7 0.5 64.1514 38.3182 34.809
18097 1353 5 -0.14 63.1387 37.4203 34.6881
18099 1353 6 -0.11 61.8589 37.5396 35.3918
18103 1353 9 0.06 61.0682 36.883 35.0107
18104 1353 9 0.06 61.9826 37.2593 36.4807
34745 2740 8 -0.5 60.985 41.7524 37.17
34749 2740 9 0.06 64.2063 42.3549 35.8335
35381 2793 8 -0.5 64.1073 38.1579 38.0224
34742 2740 6 -0.11 64.4101 41.8734 36.823
34741 2740 5 -0.14 63.1125 41.7096 37.4925
34744 2740 7 0.5 62.0557 41.306 36.8922
27164 2108 9 0.06 62.5943 42.7221 33.8307
34752 2740 10 0.0 62.1927 40.8053 35.9673
34751 2740 9 0.06 64.9346 40.9786 36.5188
34750 2740 9 0.06 64.9218 42.4195 37.5854
33107 2603 9 0.06 65.4113 41.52 32.7053
29447 2298 9 0.06 65.2247 38.6223 30.9937
11913 837 9 0.06 37.6432 42.909 33.3198
34062 2683 9 0.06 37.6459 46.1422 31.459
13482 968 9 0.06 31.0658 45.0842 31.7343
34066 2683 9 0.06 37.3085 48.8367 31.3195
10451 715 9 0.06 33.6656 43.7638 37.2052
34058 2683 6 -0.11 36.4251 48.2773 31.6604
34067 2683 9 0.06 35.565 49.0045 31.6853
34065 2683 9 0.06 36.4797 47.7478 32.5541
10447 715 9 0.06 34.0152 42.8829 34.1546
10441 715 5 -0.14 35.1721 43.4771 35.7489
10442 715 6 -0.11 34.6362 43.3374 37.1478
10444 715 7 0.5 35.9361 44.5886 35.3969
27219 2113 6 -0.11 32.7245 46.7308 34.6487
27222 2113 9 0.06 33.2701 46.3669 33.7758
27223 2113 9 0.06 32.8459 46.1283 35.5281
27224 2113 9 0.06 31.6678 46.74 34.379
27217 2113 5 -0.14 33.2481 48.0694 35.0306
30941 2423 8 -0.5 36.3742 48.1352 36.8256
27220 2113 7 0.5 34.0587 48.6995 34.1942
30940 2423 7 0.5 37.417 48.6746 36.5323
27218 2113 6 -0.11 32.5807 48.6589 36.216
27226 2113 9 0.06 32.4066 47.9456 36.9869
10450 715 9 0.06 35.3153 43.9169 37.8419
27228 2113 10 0.0 35.1332 48.9614 34.4458
10452 715 10 0.0 36.4676 45.0653 36.1696
10445 715 8 -0.5 35.904 45.1089 34.2546
27221 2113 8 -0.5 33.662 49.2038 33.142
30948 2423 10 0.0 37.4611 49.7588 36.3648
27227 2113 9 0.06 33.2454 49.3494 36.7248
27225 2113 9 0.06 31.7222 49.2403 35.9767
30946 2423 9 0.06 38.2442 46.8983 34.3107
30937 2423 5 -0.14 38.465 47.9764 36.1265
30947 2423 9 0.06 38.5184 48.7269 34.1645
30938 2423 6 -0.11 38.7464 47.7892 34.6916
11914 837 9 0.06 38.9622 44.1316 32.8689
12925 922 5 -0.14 41.7085 48.6526 31.3248
11906 837 6 -0.11 38.7128 43.229 33.3508
11909 837 8 -0.5 40.6674 44.9096 34.5697
11908 837 7 0.5 40.5469 43.7079 34.8028
11916 837 10 0.0 41.2771 43.1878 35.4412
11905 837 5 -0.14 39.2859 43.2151 34.6972
30944 2423 9 0.06 38.2422 46.157 37.0422
30939 2423 6 -0.11 39.0855 46.9104 36.9349
30942 2423 9 0.06 39.9302 46.4788 36.4946
12926 922 6 -0.11 42.2047 47.7216 32.3633
12935 922 9 0.06 42.0022 48.0181 33.3517
28477 2218 5 -0.14 41.9378 48.5561 37.9219
30945 2423 9 0.06 39.8407 47.5379 34.631
12933 922 9 0.06 41.6679 46.7747 32.1444
12934 922 9 0.06 43.2665 47.4911 32.1991
28485 2218 9 0.06 42.0581 47.9171 36.0404
28478 2218 6 -0.11 41.8736 48.8367 36.5153
28487 2218 9 0.06 42.5605 49.572 36.2439
12927 922 6 -0.11 40.45 49.3965 31.6084
12930 922 9 0.06 39.7121 48.833 31.17
28486 2218 9 0.06 40.8536 49.0839 36.2227
28482 2218 9 0.06 43.6252 47.6774 38.1876
30943 2423 9 0.06 39.2887 47.1463 37.9266
12931 922 9 0.06 40.1857 49.6317 32.6678
28484 2218 9 0.06 42.3511 46.5521 37.9148
13730 989 6 -0.11 49.2895 48.9961 37.0843
13738 989 9 0.06 50.1711 49.6239 37.3307
13739 989 9 0.06 49.5456 47.9392 37.1229
13737 989 9 0.06 48.9197 49.2663 36.1178
13736 989 9 0.06 46.7687 48.3838 37.0156
12018 846 9 0.06 57.8982 43.4176 36.7221
12015 846 6 -0.11 57.3488 44.3855 36.6337
12020 846 9 0.06 56.6905 44.2916 35.7439
12019 846 9 0.06 56.7449 44.4204 37.5141
12013 846 5 -0.14 58.2618 45.5382 36.4896
12017 846 8 -0.5 58.3872 47.6776 35.9913
12016 846 7 0.5 58.1517 46.5409 35.6502
37440 2964 10 0.0 55.0866 49.9067 32.7848
4099 186 9 0.06 56.027 49.4349 36.5927
12024 846 10 0.0 57.9563 46.2776 34.6125
23880 1834 10 0.0 63.8342 47.526 30.9369
27159 2108 6 -0.11 62.8269 43.6534 33.3625
27162 2108 9 0.06 63.7336 43.5486 32.7202
27163 2108 9 0.06 63.2853 44.2419 34.1318
27160 2108 7 0.5 61.1836 43.6574 31.5466
27157 2108 5 -0.14 61.6408 44.1855 32.6671
23869 1834 5 -0.14 65.429 46.3499 31.3336
12022 846 9 0.06 60.3896 45.0514 36.166
27165 2108 9 0.06 61.862 46.1623 33.6136
27166 2108 9 0.06 60.5265 46.015 32.3857
27167 2108 9 0.06 60.3109 45.2082 33.8272
27158 2108 6 -0.11 61.1006 45.4499 33.1548
12014 846 6 -0.11 59.6052 45.1698 36.976
2213 29 8 -0.5 62.4933 46.0487 36.4608
2212 29 7 0.5 63.3131 45.5082 37.1001
2220 29 10 0.0 63.1934 44.4449 37.3279
12021 846 9 0.06 59.6812 44.2808 37.5771
12023 846 9 0.06 59.9572 46.0055 37.5473
2209 29 5 -0.14 64.4827 45.929 37.5516
13410 962 9 0.06 61.1556 48.7657 35.498
13407 962 6 -0.11 62.1542 49.1032 35.263
13411 962 9 0.06 62.5412 48.5543 34.4141
13412 962 9 0.06 62.8634 49.0358 36.1757
23878 1834 9 0.06 64.8408 46.0676 33.179
2218 29 9 0.06 65.1132 47.8649 37.9461
23870 1834 6 -0.11 65.6225 46.6365 32.7139
23877 1834 9 0.06 65.5906 47.6931 32.8993
35319 2788 6 -0.11 33.7382 57.0926 33.1805
26130 2022 9 0.06 36.9464 56.9067 34.6613
5453 299 8 -0.5 31.2857 51.7767 31.2458
30626 2397 6 -0.11 35.0858 53.7258 30.8639
30628 2397 7 0.5 37.4301 53.1211 30.9713
30633 2397 9 0.06 35.3233 54.7751 30.936
30635 2397 9 0.06 34.2015 53.5247 31.4468
30625 2397 5 -0.14 36.1994 53.0055 31.5076
30630 2397 9 0.06 35.9976 52.3669 33.5036
30627 2397 6 -0.11 35.922 51.9616 32.5037
30631 2397 9 0.06 34.8156 51.8098 32.3721
30632 2397 9 0.06 36.5588 51.0514 32.4338
35320 2788 7 0.5 34.2491 55.2045 34.6479
35321 2788 8 -0.5 33.9234 54.236 33.8823
26583 2060 6 -0.11 35.734 52.0898 36.4543
26586 2060 9 0.06 34.7353 51.5747 36.2768
26587 2060 9 0.06 35.6031 53.1874 36.2169
26588 2060 9 0.06 36.4608 51.6985 35.7274
26581 2060 5 -0.14 36.1969 52.1577 37.8545
35328 2788 10 0.0 35.3162 55.2474 34.7981
11389 794 5 -0.14 31.966 53.736 38.1538
11395 794 9 0.06 32.6319 51.6946 37.8289
35317 2788 5 -0.14 33.8788 56.4884 34.4929
5460 299 10 0.0 32.5902 51.8636 32.726
5452 299 7 0.5 31.5923 52.0765 32.3742
11391 794 6 -0.11 31.9614 52.2543 38.4885
35326 2788 9 0.06 33.2727 57.0303 36.4709
26134 2022 9 0.06 37.2342 56.7081 32.2538
11398 794 9 0.06 31.2198 55.235 36.6499
26584 2060 7 0.5 37.2546 52.8353 38.1702
5455 299 9 0.06 31.1073 50.9545 34.748
35324 2788 9 0.06 33.1674 56.544 32.4612
11399 794 9 0.06 31.6027 53.6806 36.1844
11390 794 6 -0.11 31.2286 54.211 36.9888
22675 1734 9 0.06 41.2929 54.1006 30.9439
17117 1271 8 -0.5 38.7141 54.6419 35.1213
22680 1734 10 0.0 42.8321 56.4108 31.7694
30629 2397 8 -0.5 38.3916 53.2148 31.751
12932 922 9 0.06 40.5586 50.3007 31.0555
17120 1271 9 0.06 41.5451 51.5221 34.1812
22676 1734 9 0.06 40.8468 55.5645 31.7255
17119 1271 9 0.06 39.7341 51.3231 34.3028
4625 230 8 -0.5 44.6906 51.3149 32.6475
17113 1271 5 -0.14 40.424 53.1635 35.2506
17122 1271 9 0.06 40.4241 54.2347 36.9934
17114 1271 6 -0.11 41.1949 53.6299 36.3887
17121 1271 9 0.06 42.0091 54.28 36.1024
17123 1271 9 0.06 41.5934 52.8788 36.9969
17115 1271 6 -0.11 40.6557 51.7827 34.7851
17116 1271 7 0.5 39.5901 53.9601 34.5869
17118 1271 9 0.06 40.7816 51.1767 35.6265
17124 1271 10 0.0 40.0038 54.4004 33.648
4623 230 6 -0.11 43.8201 54.3879 33.7754
4621 230 5 -0.14 44.6575 53.507 32.982
4628 230 9 0.06 42.7636 54.4092 33.4873
4627 230 9 0.06 44.1861 55.4121 33.7082
33788 2660 9 0.06 44.5938 53.0397 37.2016
27035 2097 9 0.06 43.5587 57.2187 37.1748
4626 230 9 0.06 43.9073 54.1017 34.7593
29866 2333 9 0.06 38.609 56.306 37.9052
33786 2660 9 0.06 44.5566 51.656 38.2578
4630 230 9 0.06 45.0895 53.9318 30.8908
4624 230 7 0.5 44.9449 52.2582 33.3723
33789 2660 9 0.06 44.6187 55.1844 38.0015
4632 230 10 0.0 45.8544 52.182 34.0157
4622 230 6 -0.11 45.5185 54.083 31.9469
4629 230 9 0.06 46.4609 53.5683 31.9849
4631 230 9 0.06 45.6822 55.1641 32.0103
7576 476 7 0.5 48.0913 52.8567 36.3038
7584 476 10 0.0 48.8406 52.0938 36.1292
7573 476 5 -0.14 48.4673 54.0923 35.9173
7582 476 9 0.06 48.3276 53.9631 33.9674
7574 476 6 -0.11 48.0407 54.7297 34.6747
7581 476 9 0.06 48.5619 55.7146 34.4266
7583 476 9 0.06 46.9398 54.8384 34.7004
7575 476 6 -0.11 48.9451 55.0562 36.9409
7577 476 8 -0.5 46.9964 52.5673 36.7963
7578 476 9 0.06 48.2059 55.1841 37.744
7580 476 9 0.06 49.17 56.0601 36.3966
7579 476 9 0.06 49.8925 54.6224 37.18
17503 1303 9 0.06 51.1468 56.2991 35.1072
17506 1303 9 0.06 51.2927 53.7912 32.69
29421 2296 9 0.06 47.1817 57.1939 33.5854
4098 186 9 0.06 56.8781 50.3372 35.4739
17501 1303 8 -0.5 52.4677 54.1002 36.2689
17507 1303 9 0.06 52.0666 55.3509 32.2588
37433 2964 8 -0.5 53.5398 51.173 33.3465
37435 2964 9 0.06 56.9783 51.4178 32.0331
17502 1303 9 0.06 51.9715 56.9154 33.6773
17504 1303 9 0.06 52.845 56.7319 35.1371
4094 186 6 -0.11 55.3297 51.6332 38.3469
17499 1303 6 -0.11 52.0775 56.2265 34.5475
26182 2026 9 0.06 56.016 55.1589 35.8868
17505 1303 9 0.06 53.132 53.823 32.4367
37432 2964 7 0.5 54.5581 50.9131 32.7475
37429 2964 5 -0.14 54.9478 51.7795 31.8587
37431 2964 6 -0.11 56.3208 52.2675 32.0111
37436 2964 9 0.06 56.6767 52.859 31.2158
37434 2964 9 0.06 56.4845 52.9181 32.8583
17497 1303 5 -0.14 52.4458 54.8059 34.1799
17508 1303 10 0.0 52.7359 52.8371 34.6887
17500 1303 7 0.5 52.7431 53.8785 35.0894
17498 1303 6 -0.11 52.2386 54.3816 32.756
26181 2026 9 0.06 55.3231 55.795 34.3183
4095 186 6 -0.11 56.0619 50.4212 36.2143
4093 186 5 -0.14 56.3804 51.3747 37.3151
26174 2026 6 -0.11 55.9759 56.0262 35.2017
26179 2026 9 0.06 58.0925 54.501 35.4255
4103 186 9 0.06 54.3458 51.5121 37.881
26173 2026 5 -0.14 57.286 56.3131 34.6666
26183 2026 9 0.06 55.5205 56.8748 35.6948
26175 2026 6 -0.11 58.3995 55.5308 35.1566
4100 186 9 0.06 55.1203 50.792 35.8568
4096 186 7 0.5 57.522 52.0705 37.3405
4097 186 8 -0.5 57.5559 53.2689 37.7991
4104 186 10 0.0 58.4252 51.5261 37.4008
26184 2026 10 0.0 57.0872 57.0788 32.7749
8914 587 9 0.06 65.0276 51.3524 31.943
26178 2026 9 0.06 58.7484 55.9379 36.0324
13413 962 9 0.06 64.0701 50.7862 35.5896
13405 962 5 -0.14 62.1031 50.5293 34.8681
13406 962 6 -0.11 63.3165 51.3958 35.0937
13415 962 9 0.06 62.9953 52.2763 35.4969
13416 962 10 0.0 60.3189 51.8083 35.1812
13408 962 7 0.5 60.9212 51.1546 34.5022
13414 962 9 0.06 63.6398 51.6422 34.1065
26180 2026 9 0.06 59.2798 55.4873 34.5428
13409 962 8 -0.5 60.6232 51.3026 33.3327
18665 1400 8 -0.5 64.8618 50.7896 38.0709
5407 295 9 0.06 61.8654 30.9303 38.5883
5406 295 9 0.06 62.869 29.5824 38.1478
2374 42 9 0.06 60.0314 34.8921 44.0875
2375 42 9 0.06 61.2423 33.5715 43.7932
2366 42 6 -0.11 60.8885 34.5724 43.4711
2370 42 9 0.06 60.3227 32.3103 42.6377
2365 42 5 -0.14 60.381 34.3576 42.0998
2371 42 9 0.06 58.8784 32.8652 41.986
2367 42 6 -0.11 59.9597 32.9934 41.9057
2372 42 9 0.06 60.2813 32.5163 40.9326
2376 42 10 0.0 60.5194 35.6218 40.4349
2368 42 7 0.5 59.9953 35.4488 41.3234
8151 524 6 -0.11 65.4356 34.606 43.2244
8154 524 9 0.06 65.1521 33.5893 43.5208
8155 524 9 0.06 64.6375 35.1076 42.6869
35387 2793 9 0.06 64.6011 35.136 38.6015
24693 1902 9 0.06 31.3189 42.21 43.7159
32830 2580 9 0.06 40.9136 41.2352 39.2692
32826 2580 9 0.06 43.7367 40.4848 37.8991
32832 2580 10 0.0 42.1958 37.4579 38.6949
32829 2580 9 0.06 41.013 40.1659 40.4538
32822 2580 6 -0.11 40.9276 40.1604 39.377
32821 2580 5 -0.14 42.0567 39.5348 38.8039
32824 2580 7 0.5 42.5535 38.3126 39.2356
32825 2580 8 -0.5 43.3236 38.1761 40.1543
32831 2580 9 0.06 40.067 39.6393 39.0252
10906 753 9 0.06 38.5836 42.179 41.8402
10907 753 9 0.06 40.339 42.3023 41.54
10898 753 6 -0.11 39.409 42.8707 41.7597
2373 42 9 0.06 61.6282 35.3717 43.5818
2369 42 8 -0.5 59.2764 36.3684 41.8194
8152 524 7 0.5 65.2409 36.5138 44.8451
35388 2793 10 0.0 63.5617 37.8399 39.9645
35380 2793 7 0.5 64.2478 37.5938 39.1411
11997 844 9 0.06 62.8499 40.294 45.423
11990 844 6 -0.11 61.8379 40.3609 44.9814
11999 844 9 0.06 61.2288 39.5402 45.4371
11995 844 9 0.06 61.2791 39.6821 41.6471
12000 844 10 0.0 60.984 42.395 43.4233
11996 844 9 0.06 62.3217 38.7735 42.6269
11989 844 5 -0.14 61.7258 40.5724 43.5287
11991 844 6 -0.11 61.4699 39.3937 42.7162
11993 844 8 -0.5 62.7828 42.378 42.8098
11992 844 7 0.5 61.7438 41.7852 43.0175
11994 844 9 0.06 60.6305 38.8035 43.1283
34743 2740 6 -0.11 62.9887 42.2545 38.9208
34746 2740 9 0.06 63.4865 41.5449 39.5788
34748 2740 9 0.06 61.9731 42.4513 39.336
8160 524 10 0.0 65.4161 37.3645 44.1724
5328 288 10 0.0 65.0854 42.3784 43.8535
35377 2793 5 -0.14 65.3806 37.0155 39.4723
5320 288 7 0.5 65.4605 42.6342 44.8425
13584 976 10 0.0 34.4872 47.998 39.0683
13577 976 8 -0.5 34.7585 46.5057 40.531
13576 976 7 0.5 34.1976 47.5067 40.047
13573 976 5 -0.14 33.3036 48.1939 40.805
17170 1275 9 0.06 36.5998 48.0548 42.1616
13575 976 6 -0.11 31.9789 47.6783 41.0416
13578 976 9 0.06 31.8947 47.632 42.1841
13580 976 9 0.06 31.9096 46.6902 40.5141
13579 976 9 0.06 31.2598 48.287 40.6053
13574 976 6 -0.11 33.7677 49.2805 41.635
13582 976 9 0.06 32.998 50.0582 41.6706
13583 976 9 0.06 33.8993 48.7498 42.6232
23246 1782 6 -0.11 36.0265 48.6525 45.5968
10908 753 10 0.0 37.5656 44.9045 40.1103
23253 1782 9 0.06 35.9247 48.6132 44.5334
20806 1578 9 0.06 31.4497 48.1137 44.9037
17162 1275 6 -0.11 37.4613 48.6454 41.685
26562 2058 9 0.06 32.9504 45.161 44.9767
17171 1275 9 0.06 37.0843 49.362 40.9781
26568 2058 10 0.0 35.6366 43.8429 46.1825
17169 1275 9 0.06 38.0825 47.9459 41.1397
13581 976 9 0.06 34.7552 49.6169 41.326
28479 2218 6 -0.11 42.6254 47.3937 38.463
17161 1275 5 -0.14 38.2039 49.353 42.6851
28483 2218 9 0.06 42.5835 47.3136 39.5387
28480 2218 7 0.5 41.6718 49.565 38.7932
17165 1275 8 -0.5 40.0554 48.8197 43.844
10905 753 9 0.06 39.6439 43.2087 42.716
10897 753 5 -0.14 39.2803 44.0068 40.8841
10900 753 7 0.5 38.2874 44.1058 39.9816
10901 753 8 -0.5 38.287 43.3794 38.9877
10899 753 6 -0.11 40.3427 44.9866 40.9515
10904 753 9 0.06 41.2533 44.3798 40.8255
10903 753 9 0.06 40.3052 45.4782 41.9118
10902 753 9 0.06 40.3747 45.7843 40.1849
17164 1275 7 0.5 39.5438 49.1283 42.7939
37155 2941 6 -0.11 43.4788 49.1778 42.9583
37160 2941 9 0.06 42.7925 49.629 43.7205
37158 2941 9 0.06 42.8791 48.9633 42.0924
28481 2218 8 -0.5 40.9132 49.4141 39.7756
37159 2941 9 0.06 43.8886 48.1811 43.2006
17172 1275 10 0.0 40.1885 49.3032 41.9457
37153 2941 5 -0.14 44.6416 50.0134 42.7472
37164 2941 10 0.0 45.27 49.955 40.7555
13734 989 9 0.06 46.9098 47.8305 38.7942
13731 989 6 -0.11 47.002 48.6616 38.0929
13735 989 9 0.06 46.2819 49.442 38.4601
13740 989 10 0.0 48.4935 49.5707 40.1374
13729 989 5 -0.14 48.3083 49.2241 38.1606
37157 2941 8 -0.5 46.5949 49.242 42.1036
37156 2941 7 0.5 45.4779 49.6344 41.7921
33835 2664 9 0.06 51.6794 49.8034 42.3084
35255 2782 9 0.06 57.3078 48.6194 41.6893
35246 2782 6 -0.11 57.7918 47.7082 41.9877
35253 2782 9 0.06 57.0524 46.9878 41.7745
35254 2782 9 0.06 57.9369 47.6009 43.0481
35252 2782 9 0.06 58.2537 48.9142 39.9271
2210 29 6 -0.11 64.6495 47.0607 38.4066
34747 2740 9 0.06 63.4761 43.2517 39.0892
35245 2782 5 -0.14 58.9922 47.4899 41.1323
35250 2782 9 0.06 60.028 49.022 40.166
18672 1400 10 0.0 65.5054 49.7834 39.5291
34146 2690 9 0.06 63.6209 46.0172 40.8198
35256 2782 10 0.0 60.1227 45.7739 40.8128
34148 2690 9 0.06 63.2636 45.524 42.5643
34143 2690 6 -0.11 63.9868 45.8658 41.8427
35248 2782 7 0.5 59.8685 46.556 41.5169
34147 2690 9 0.06 64.7318 45.0425 41.8944
35249 2782 8 -0.5 60.241 46.3196 42.6825
35251 2782 9 0.06 59.259 47.8627 39.0515
35247 2782 6 -0.11 59.1884 48.3739 39.9706
34142 2690 6 -0.11 65.41 47.2741 43.2662
34141 2690 5 -0.14 64.4173 47.1796 42.2759
34144 2690 7 0.5 63.7575 48.2619 41.9172
34145 2690 8 -0.5 62.5932 48.12 41.5724
34152 2690 10 0.0 64.3859 49.0079 41.5159
22243 1698 9 0.06 59.7598 49.9541 42.7976
22239 1698 6 -0.11 59.6322 50.1079 43.8891
22244 1698 9 0.06 59.2389 49.2039 44.4114
2219 29 9 0.06 63.7428 47.4568 38.8428
22245 1698 9 0.06 61.4326 48.5645 45.2519
22238 1698 6 -0.11 61.6521 49.6289 45.3944
22246 1698 9 0.06 62.8134 49.7345 45.3498
2217 29 9 0.06 65.3631 46.7122 39.165
34151 2690 9 0.06 64.9525 47.7464 44.1373
9983 676 9 0.06 32.4941 56.8653 40.9468
26592 2060 10 0.0 37.0066 53.7895 38.6877
11392 794 7 0.5 32.6761 54.5994 38.8975
26590 2060 9 0.06 35.4219 50.2053 38.4938
11393 794 8 -0.5 33.8809 54.7029 38.6346
29868 2333 10 0.0 35.5268 56.6793 39.2416
11400 794 10 0.0 32.2317 55.1527 39.6105
26582 2060 6 -0.11 35.6429 51.1941 38.8839
11396 794 9 0.06 32.262 52.073 39.5068
17166 1275 9 0.06 36.6602 50.8451 42.7537
26591 2060 9 0.06 36.2228 51.0681 39.7274
26589 2060 9 0.06 34.6225 51.5694 39.1481
34810 2745 9 0.06 32.9646 53.764 41.5292
17163 1275 6 -0.11 37.6737 50.6781 43.086